Si NpT (synthetic, per-frame cell)
   1.0
     5.6000000000000000    0.0000000000000000    0.0000000000000000
     0.0000000000000000    5.6000000000000000    0.0000000000000000
     0.0000000000000000    0.0000000000000000    5.6000000000000000
   Si
     2
Direct configuration=     1
  0.00000000  0.00000000  0.00000000
  0.50000000  0.50000000  0.50000000
Si NpT (synthetic, per-frame cell)
   1.0
     5.8000000000000000    0.0000000000000000    0.0000000000000000
     0.0000000000000000    5.8000000000000000    0.0000000000000000
     0.0000000000000000    0.0000000000000000    5.8000000000000000
   Si
     2
Direct configuration=     2
  0.00000000  0.00000000  0.00000000
  0.50000000  0.50000000  0.50000000
Si NpT (synthetic, per-frame cell)
   1.0
     6.0000000000000000    0.0000000000000000    0.0000000000000000
     0.0000000000000000    6.0000000000000000    0.0000000000000000
     0.0000000000000000    0.0000000000000000    6.0000000000000000
   Si
     2
Direct configuration=     3
  0.00000000  0.00000000  0.00000000
  0.50000000  0.50000000  0.50000000
